Gaussian main input file as sugested by Fernando R. Clemente            
FOpt      External='python3 /media/mateus/Data/Teste_DicePlayer/OPT/MeZDO                 
Number of atoms                            I                6
Info1-9                                    I   N=           9
          15          13           0           0           0         100
           2           8        1701
Full Title                                 C   N=           5
Gaussian main input file as sugested by Fernando R. Clemente
Route                                      C   N=          18
#p external=(iofchk,readinputsection,guess,"python3 /media/m
ateus/Data/Teste_DicePlayer/OPT/Metanol/DicePlayerOPT/dicepl
ayer.py")/6-31g(d) Pop=(CHELPG,SaveESP) density=current opt=
nomicro nosymm Pop=(CHELPG,SaveESP) 
Charge                                     I                0
Multiplicity                               I                1
Number of electrons                        I               18
Number of alpha electrons                  I                9
Number of beta electrons                   I                9
Number of basis functions                  I               38
Number of independent functions            I               38
Number of point charges in /Mol/           I                0
Number of translation vectors              I                0
Atomic numbers                             I   N=           6
           8           1           6           1           1           1
Nuclear charges                            R   N=           6
  8.00000000E+00  1.00000000E+00  6.00000000E+00  1.00000000E+00  1.00000000E+00
  1.00000000E+00
Current cartesian coordinates              R   N=          18
 -8.50376756E-01 -1.30391103E-01 -9.90216489E-01 -2.28278916E+00 -1.14895348E+00
 -4.62982901E-01  8.99509635E-01  2.64561657E-02  1.06580553E+00  5.29123315E-02
  9.41083610E-01  2.71931589E+00  1.61571584E+00 -1.84059325E+00  1.60248775E+00
  2.46420287E+00  1.17918910E+00  3.89283582E-01
Number of symbols in /Mol/                 I                0
Force Field                                I                0
Atom Types                                 C   N=           6
                                                            
            
Int Atom Types                             I   N=           6
           0           0           0           0           0           0
MM charges                                 R   N=           6
  0.00000000E+00  0.00000000E+00  0.00000000E+00  0.00000000E+00  0.00000000E+00
  0.00000000E+00
Integer atomic weights                     I   N=           6
          16           1          12           1           1           1
Real atomic weights                        R   N=           6
  1.59949146E+01  1.00782504E+00  1.20000000E+01  1.00782504E+00  1.00782504E+00
  1.00782504E+00
Atom fragment info                         I   N=           6
           0           0           0           0           0           0
Atom residue num                           I   N=           6
           0           0           0           0           0           0
Nuclear spins                              I   N=           6
           0           1           0           1           1           1
Nuclear ZEff                               R   N=           6
 -5.60000000E+00 -1.00000000E+00 -3.60000000E+00 -1.00000000E+00 -1.00000000E+00
 -1.00000000E+00
Nuclear ZNuc                               R   N=           6
  8.00000000E+00  1.00000000E+00  6.00000000E+00  1.00000000E+00  1.00000000E+00
  1.00000000E+00
Nuclear QMom                               R   N=           6
  0.00000000E+00  0.00000000E+00  0.00000000E+00  0.00000000E+00  0.00000000E+00
  0.00000000E+00
Nuclear GFac                               R   N=           6
  0.00000000E+00  2.79284600E+00  0.00000000E+00  2.79284600E+00  2.79284600E+00
  2.79284600E+00
MicOpt                                     I   N=           6
          -1          -1          -1          -1          -1          -1
Number of residues                         I                0
Number of secondary structures             I                0
Redundant internal dimensions              I   N=           4
          15           5           7           3
Redundant internal coordinate indices      I   N=          60
           1           2           0           0           1           3
           0           0           3           4           0           0
           3           5           0           0           3           6
           0           0           2           1           3           0
           1           3           4           0           1           3
           5           0           1           3           6           0
           4           3           5           0           4           3
           6           0           5           3           6           0
           2           1           3           4           2           1
           3           5           2           1           3           6
Redundant internal coordinates             R   N=          15
  1.83500678E+00  2.70442785E+00  2.07059578E+00  2.07047160E+00  2.05784841E+00
  1.89530691E+00  1.94783471E+00  1.94828240E+00  1.84890691E+00  1.91002633E+00
  1.90284157E+00  1.90426869E+00 -1.07296426E+00  1.07066445E+00  3.14142306E+00
ZRed-IntVec                                I   N=          15
           0           0           0           0           0           0
           0           0           0           0           0           0
           0           0           0
ZRed-FPVec                                 R   N=          15
  0.00000000E+00  0.00000000E+00  0.00000000E+00  0.00000000E+00  0.00000000E+00
  0.00000000E+00  0.00000000E+00  0.00000000E+00  0.00000000E+00  0.00000000E+00
  0.00000000E+00  0.00000000E+00  0.00000000E+00  0.00000000E+00  0.00000000E+00
ZRed-Constraint1                           R   N=          15
  1.83500678E+00  2.70442785E+00  2.07059578E+00  2.07047160E+00  2.05784841E+00
  1.89530691E+00  1.94783471E+00  1.94828240E+00  1.84890691E+00  1.91002633E+00
  1.90284157E+00  1.90426869E+00 -1.07296426E+00  1.07066445E+00  3.14142306E+00
ZRed-Constraint2                           R   N=          15
  0.00000000E+00  0.00000000E+00  0.00000000E+00  0.00000000E+00  0.00000000E+00
  0.00000000E+00  0.00000000E+00  0.00000000E+00  0.00000000E+00  0.00000000E+00
  0.00000000E+00  0.00000000E+00  0.00000000E+00  0.00000000E+00  0.00000000E+00
Number of contracted shells                I               16
Number of primitive shells                 I               38
Pure/Cartesian d shells                    I                1
Pure/Cartesian f shells                    I                0
Highest angular momentum                   I                2
Largest degree of contraction              I                6
Shell types                                I   N=          16
           0          -1          -1           2           0           0
           0          -1          -1           2           0           0
           0           0           0           0
Number of primitives per shell             I   N=          16
           6           3           1           1           3           1
           6           3           1           1           3           1
           3           1           3           1
Shell to atom map                          I   N=          16
           1           1           1           1           2           2
           3           3           3           3           4           4
           5           5           6           6
Primitive exponents                        R   N=          38
  5.48467166E+03  8.25234946E+02  1.88046958E+02  5.29645000E+01  1.68975704E+01
  5.79963534E+00  1.55396162E+01  3.59993359E+00  1.01376175E+00  2.70005823E-01
  8.00000000E-01  1.87311370E+01  2.82539436E+00  6.40121692E-01  1.61277759E-01
  3.04752488E+03  4.57369518E+02  1.03948685E+02  2.92101553E+01  9.28666296E+00
  3.16392696E+00  7.86827235E+00  1.88128854E+00  5.44249258E-01  1.68714478E-01
  8.00000000E-01  1.87311370E+01  2.82539436E+00  6.40121692E-01  1.61277759E-01
  1.87311370E+01  2.82539436E+00  6.40121692E-01  1.61277759E-01  1.87311370E+01
  2.82539436E+00  6.40121692E-01  1.61277759E-01
Contraction coefficients                   R   N=          38
  1.83107443E-03  1.39501722E-02  6.84450781E-02  2.32714336E-01  4.70192898E-01
  3.58520853E-01 -1.10777550E-01 -1.48026263E-01  1.13076702E+00  1.00000000E+00
  1.00000000E+00  3.34946043E-02  2.34726953E-01  8.13757326E-01  1.00000000E+00
  1.83473713E-03  1.40373228E-02  6.88426223E-02  2.32184443E-01  4.67941348E-01
  3.62311985E-01 -1.19332420E-01 -1.60854152E-01  1.14345644E+00  1.00000000E+00
  1.00000000E+00  3.34946043E-02  2.34726953E-01  8.13757326E-01  1.00000000E+00
  3.34946043E-02  2.34726953E-01  8.13757326E-01  1.00000000E+00  3.34946043E-02
  2.34726953E-01  8.13757326E-01  1.00000000E+00
P(S=P) Contraction coefficients            R   N=          38
  0.00000000E+00  0.00000000E+00  0.00000000E+00  0.00000000E+00  0.00000000E+00
  0.00000000E+00  7.08742682E-02  3.39752839E-01  7.27158577E-01  1.00000000E+00
  0.00000000E+00  0.00000000E+00  0.00000000E+00  0.00000000E+00  0.00000000E+00
  0.00000000E+00  0.00000000E+00  0.00000000E+00  0.00000000E+00  0.00000000E+00
  0.00000000E+00  6.89990666E-02  3.16423961E-01  7.44308291E-01  1.00000000E+00
  0.00000000E+00  0.00000000E+00  0.00000000E+00  0.00000000E+00  0.00000000E+00
  0.00000000E+00  0.00000000E+00  0.00000000E+00  0.00000000E+00  0.00000000E+00
  0.00000000E+00  0.00000000E+00  0.00000000E+00
Coordinates of each shell                  R   N=          48
 -8.50376756E-01 -1.30391103E-01 -9.90216489E-01 -8.50376756E-01 -1.30391103E-01
 -9.90216489E-01 -8.50376756E-01 -1.30391103E-01 -9.90216489E-01 -8.50376756E-01
 -1.30391103E-01 -9.90216489E-01 -2.28278916E+00 -1.14895348E+00 -4.62982901E-01
 -2.28278916E+00 -1.14895348E+00 -4.62982901E-01  8.99509635E-01  2.64561657E-02
  1.06580553E+00  8.99509635E-01  2.64561657E-02  1.06580553E+00  8.99509635E-01
  2.64561657E-02  1.06580553E+00  8.99509635E-01  2.64561657E-02  1.06580553E+00
  5.29123315E-02  9.41083610E-01  2.71931589E+00  5.29123315E-02  9.41083610E-01
  2.71931589E+00  1.61571584E+00 -1.84059325E+00  1.60248775E+00  1.61571584E+00
 -1.84059325E+00  1.60248775E+00  2.46420287E+00  1.17918910E+00  3.89283582E-01
  2.46420287E+00  1.17918910E+00  3.89283582E-01
Num ILSW                                   I              100
ILSW                                       I   N=         100
           0           1           0           0           0           0
           0           0           0           0           0          -1
           5           0           0           0          -1           0
           0           0           0           0           1           0
           1           1           0           0           0           0
           0           0      100000           0          -1           0
           0           0           0           0           0           0
           0           0           0         100           0           0
           0 -2000000000           1           0           0           0
           0           0           4          52           0           0
           0           0           0           0           0           0
           0           0           0           6           0           1
           0           0           0           0           0           0
           0           0           0           0           0           0
           0           0           0           0           0           0
           0           0           0           0           0           0
           0           0           0           0
Num RLSW                                   I               52
RLSW                                       R   N=          52
  1.00000000E+00  1.00000000E+00  1.00000000E+00  1.00000000E+00  1.00000000E+00
  0.00000000E+00  0.00000000E+00  1.00000000E+00  0.00000000E+00  0.00000000E+00
  0.00000000E+00  0.00000000E+00  1.00000000E+00  0.00000000E+00  0.00000000E+00
  0.00000000E+00  0.00000000E+00  1.00000000E+00  0.00000000E+00  0.00000000E+00
  0.00000000E+00  0.00000000E+00  1.00000000E+00  0.00000000E+00  0.00000000E+00
  0.00000000E+00  0.00000000E+00  1.00000000E+00  0.00000000E+00  0.00000000E+00
  0.00000000E+00  0.00000000E+00  1.00000000E+00  0.00000000E+00  0.00000000E+00
  0.00000000E+00  0.00000000E+00  0.00000000E+00  1.00000000E+00  1.00000000E+00
  0.00000000E+00  1.00000000E+00  0.00000000E+00  0.00000000E+00  0.00000000E+00
  0.00000000E+00  0.00000000E+00  0.00000000E+00  0.00000000E+00  0.00000000E+00
  0.00000000E+00  0.00000000E+00
MxBond                                     I                4
NBond                                      I   N=           6
           2           1           4           1           1           1
IBond                                      I   N=          24
           2           3           0           0           1           0
           0           0           1           4           5           6
           3           0           0           0           3           0
           0           0           3           0           0           0
RBond                                      R   N=          24
  1.00000000E+00  1.00000000E+00  0.00000000E+00  0.00000000E+00  1.00000000E+00
  0.00000000E+00  0.00000000E+00  0.00000000E+00  1.00000000E+00  1.00000000E+00
  1.00000000E+00  1.00000000E+00  1.00000000E+00  0.00000000E+00  0.00000000E+00
  0.00000000E+00  1.00000000E+00  0.00000000E+00  0.00000000E+00  0.00000000E+00
  1.00000000E+00  0.00000000E+00  0.00000000E+00  0.00000000E+00
Virial Ratio                               R      0.000000000000000E+00
Job Status                                 I               -1
Nuclear derivative order                   I                0
External E-field                           R   N=          35
  0.00000000E+00  0.00000000E+00  0.00000000E+00  0.00000000E+00  0.00000000E+00
  0.00000000E+00  0.00000000E+00  0.00000000E+00  0.00000000E+00  0.00000000E+00
  0.00000000E+00  0.00000000E+00  0.00000000E+00  0.00000000E+00  0.00000000E+00
  0.00000000E+00  0.00000000E+00  0.00000000E+00  0.00000000E+00  0.00000000E+00
  0.00000000E+00  0.00000000E+00  0.00000000E+00  0.00000000E+00  0.00000000E+00
  0.00000000E+00  0.00000000E+00  0.00000000E+00  0.00000000E+00  0.00000000E+00
  0.00000000E+00  0.00000000E+00  0.00000000E+00  0.00000000E+00  0.00000000E+00
IOpCl                                      I                0
IROHF                                      I                0
Alpha Orbital Energies                     R   N=          38
 -2.14831317E+01 -1.25376917E+01 -4.21683561E+00 -2.66478886E+00 -1.45638983E+00
 -1.31624872E+00 -1.05171997E+00 -7.02973857E-01 -5.41980521E-01 -1.58924255E-02
  1.95324538E-03  7.09361972E-03  8.05026744E-03  1.18908238E-02  5.24428264E-02
  7.91049942E-02  1.27462690E-01  1.31679802E-01  1.41227048E-01  2.28426956E-01
  2.44768976E-01  2.46788583E-01  2.55262375E-01  2.84304532E-01  3.20765142E-01
  3.48287740E-01  3.49776081E-01  5.77720505E-01  8.50726991E-01  9.05377828E-01
  9.80071534E-01  9.92214783E-01  1.22779171E+00  1.32478030E+00  1.34731795E+00
  1.46524358E+00  1.53508982E+00  1.65587458E+00
Alpha MO coefficients                      R   N=        1444
  9.19803682E-01  2.67808529E-01  1.00610979E-04 -2.15826580E-03  5.50120191E-03
  2.00096854E-01  4.20001207E-03 -1.73087085E-03  1.01635064E-02  6.12857203E-02
  5.85921504E-02  6.05095889E-02  2.50335499E-03  2.46809098E-03 -5.84790501E-04
  4.98694369E-02  9.04534419E-02  4.25530764E-02  3.18706627E-02 -1.93395638E-02
 -1.91768101E-03 -2.22928185E-02  6.28431393E-02 -6.27112509E-02 -6.16539469E-03
 -7.23596717E-02  2.34240377E-02  1.32260230E-02  2.69960530E-02  1.72617062E-03
  2.02179914E-02  1.86520845E-03  5.09742303E-03  2.30924407E-02  5.11510597E-03
  2.30983159E-02  5.41975613E-03  2.52444522E-02 -1.10313759E-01  5.80391131E-03
  1.70053720E-02  7.05967979E-04  2.19772164E-02  5.70395160E-02  8.49237448E-02
  6.78285094E-03  1.01799791E-01  3.42832102E-02  1.78687714E-02  4.03667751E-02
  3.24761111E-03  3.15238573E-02  2.25253867E-03  7.14980816E-03  3.64762368E-02
  8.48549291E-01  2.72159182E-01  1.13140241E-04  3.02600403E-04 -5.73737692E-04
  2.36685959E-01  1.90491993E-03  1.68202325E-04  2.26051363E-03  1.25469635E-01
  1.26280577E-01  1.25488412E-01 -1.30345079E-04 -1.44805586E-03 -3.20145355E-04
  6.22926133E-02  1.30353537E-01  6.23047768E-02  1.30361528E-01  6.37653494E-02
  1.31321201E-01  2.90161035E-01 -3.11803809E-01 -1.57092590E-02  2.96105242E-02
 -9.53962583E-02 -3.22050045E-01 -2.10688039E-02  2.92362479E-02 -1.01961670E-01
 -2.35638679E-01 -2.15097808E-01 -2.27207930E-01 -2.27187658E-02 -1.12507769E-02
  7.78723390E-03 -1.77258797E-01 -2.38893290E-01  3.96224936E-01 -1.75130889E-01
  7.52340563E-02  1.13190616E-02  7.70916632E-02 -2.40891830E-01  1.19388487E-01
  2.05811631E-02  1.15865848E-01 -1.65472173E-01 -1.47286369E-01 -1.67585519E-01
 -4.43869217E-03 -3.08302165E-02 -3.89578896E-03 -8.65784787E-02 -1.47525540E-01
 -8.66820817E-02 -1.47590698E-01 -8.48137400E-02 -1.44630381E-01 -1.76359555E-01
  2.67411106E-01 -1.31252309E-01 -6.71093378E-02 -1.69779390E-02  2.08091062E-01
 -1.70864195E-01 -7.01072847E-02 -6.48829701E-02  1.61826081E-01  1.55596279E-01
  1.42282363E-01  2.49356281E-02 -2.22017580E-02 -1.19726490E-02  2.10242452E-01
  1.84405673E-01  3.17604598E-01 -2.33078771E-01 -1.42811927E-01 -3.23392670E-02
 -1.19955000E-01 -2.16563607E-01 -2.02051546E-01 -4.42952984E-02 -1.73145008E-01
 -1.72141683E-01 -1.99671192E-01 -1.74407125E-01  6.41483157E-03  4.32715915E-02
  8.63312968E-03 -1.79081545E-01 -1.98506416E-01 -1.78772568E-01 -1.98262950E-01
 -2.00631315E-01 -2.19187310E-01  4.72044223E-02 -1.06003063E-01 -3.07681207E-01
 -2.01808709E-01  7.19638819E-02 -7.14278777E-02 -2.84896251E-01 -2.03110017E-01
  1.07119939E-01 -5.95924351E-02 -4.17290312E-02 -3.78731958E-02  7.42809397E-03
 -3.33649322E-02 -2.69749026E-02  2.01710440E-01  1.41193551E-01 -1.29556095E-02
  1.08533772E-02 -1.25523284E-01 -2.26626252E-01  3.89396038E-01  2.15571329E-02
 -1.52234830E-01 -2.28706835E-01  3.57307554E-01 -8.82757484E-04  2.91244227E-02
 -5.59357548E-03 -3.46570925E-02 -1.53166511E-02  2.34361698E-02  1.94017796E-01
  1.59089507E-01  1.93505180E-01  1.58737952E-01 -2.32482022E-01 -1.80461276E-01
 -1.03244643E-04  1.68618631E-04 -1.14902924E-01  2.00569794E-01  7.93273666E-02
  4.49737353E-04 -1.24126697E-01  2.18544284E-01  8.68966920E-02 -1.40546240E-02
 -3.79889492E-03  1.88520016E-02  2.04720579E-02 -1.08047110E-02  3.19245333E-02
  8.72181003E-04  6.79110919E-04  2.11833507E-04 -2.85225107E-04 -2.47192166E-01
  4.44232739E-01  1.78062844E-01 -3.26772939E-05 -2.32345133E-01  4.16279986E-01
  1.66630552E-01  8.79867196E-03 -3.17298852E-02  2.24150566E-02  1.63296811E-03
 -2.76797519E-02  3.16081611E-02  3.16580442E-01  2.42838241E-01 -3.17116436E-01
 -2.43157616E-01  1.50231332E-03  1.11435199E-03 -1.45924519E-02  3.66439523E-02
 -3.97316196E-01 -1.00991422E-01 -3.10978343E-01  4.50156517E-02 -2.89823378E-01
 -6.21213867E-02 -2.56333430E-01  4.46346865E-02  3.12105858E-02 -2.22420474E-02
  3.58897771E-02 -3.58253905E-02  1.70417524E-03  2.14730794E-01  1.41010539E-01
  2.11708304E-02 -3.37898189E-02  4.38515589E-01  1.95180926E-01  1.21305839E-01
  2.12618096E-02  2.92744602E-01  1.52089037E-01  2.43223665E-02 -4.12565462E-03
 -4.98900899E-03 -5.21037151E-02  3.51789841E-02 -5.07843521E-02 -1.17704410E-02
 -2.09069305E-02 -8.19052760E-05 -1.85458533E-02  1.78818356E-03  3.01462563E-01
  2.26079965E-01  7.01585318E-02 -2.07587588E-01 -1.33883802E-01 -2.98398168E-01
  5.43157104E-01 -1.46773519E-01 -9.12884983E-02 -2.24171209E-01  4.21600509E-01
 -6.05127732E-02 -7.80582963E-02 -7.24694462E-02  2.74961972E-02 -5.14336881E-03
 -1.44840357E-02  2.06492136E-01  7.01254191E-02 -1.94307220E-02  2.85967911E-02
  3.07137002E-02  1.26692500E-01 -2.69518488E-01 -1.72123865E-02  4.40619285E-02
  7.25470667E-02 -1.17932156E-01  6.09035456E-02  5.40937691E-03 -2.04070279E-02
  5.49197852E-02  7.49712146E-03  7.59465672E-03 -1.37484675E-01 -9.79108808E-02
 -1.39237671E-01 -9.89019830E-02  2.00943105E-01  1.04922510E-01  2.22016679E-04
 -6.39332888E-04 -3.42328203E-01  6.05777990E-01  2.46637379E-01 -6.47836192E-04
 -2.56362530E-01  4.52778174E-01  1.84242484E-01  8.84344170E-03 -1.39299599E-02
  3.97530918E-03 -5.62085889E-03 -8.81272364E-03  3.42350522E-03  1.17659758E-03
  4.49086460E-04 -5.98813437E-06  3.90070284E-05  9.23249645E-02 -1.61864035E-01
 -6.63617861E-02 -2.86026779E-05  4.12660066E-02 -7.17831043E-02 -2.94521366E-02
  2.71741201E-02  1.33150596E-02 -4.01520704E-02 -3.60819705E-02  2.46416941E-02
 -6.22087886E-02 -1.88123332E-01 -1.11118318E-01  1.86750781E-01  1.10245437E-01
  1.33287134E-03  7.86030041E-04 -6.28320014E-02  2.10160835E-01  3.16691409E-02
 -6.46017787E-02  2.04643611E-01  5.04879616E-01  2.44113486E-02 -7.64392324E-02
  2.23877166E-01  1.43518022E-02  2.48661850E-02  2.26041143E-02 -3.31394442E-03
 -9.17434881E-03 -4.00354467E-03 -7.52742984E-02 -4.62518712E-01  1.51101155E-02
 -2.10796550E-02  1.97421079E-01  2.34514019E-02  2.17822494E-01  2.08436066E-02
  3.19201762E-01  4.93830288E-02  3.23662600E-01  1.07993343E-02 -1.73775993E-02
  1.38631604E-02  2.18225854E-03  3.78559910E-02  7.41111523E-03 -1.67686944E-02
 -1.47477171E-01 -1.67663882E-02 -1.47544423E-01 -3.15788801E-02 -1.67281340E-01
  1.43821152E-02 -6.29530160E-03 -5.35504499E-02 -6.59610710E-03 -5.84247281E-02
 -2.02588332E-01 -1.06502203E-01 -1.47451370E-02 -1.12230430E-01  1.15175012E-02
  9.13735986E-03  1.04695334E-02  3.07689251E-04  2.73369162E-03  1.01527631E-03
 -2.38191091E-03 -4.96972651E-02 -5.40297380E-02  8.23160210E-02 -2.86099027E-02
 -1.10125206E-02 -1.26215061E-02  7.88022847E-01 -5.05263412E-02 -1.52195337E-02
 -3.24954437E-02 -6.02226113E-03 -3.78027793E-03 -7.70398456E-03  4.92324950E-04
 -4.07522483E-03 -6.88869764E-04 -1.85224333E-02 -3.28648671E-01 -1.85631626E-02
 -3.28722238E-01 -8.62124646E-03 -2.69905519E-01 -3.94226818E-03 -2.51126209E-03
 -4.72660011E-02 -1.29233386E-02 -3.41329001E-02  6.69050810E-02 -4.34932494E-02
 -1.19392999E-03 -5.80855024E-02 -8.14631953E-03 -6.82151451E-03 -1.47828766E-03
 -5.18622596E-04  2.52652771E-04 -2.64246391E-03 -2.66964944E-02 -2.04143644E-01
 -2.81598234E-03  1.33962578E-02 -1.14752111E-01 -8.64614241E-02  5.50853935E-02
 -3.15795217E-02 -3.60091217E-01 -2.92288788E-01  2.24119904E-01  2.98428308E-03
  7.77506549E-04 -2.25033600E-03  6.82047789E-03 -5.74904070E-03 -4.03779359E-03
 -2.42192826E-02 -2.77226270E-01 -2.40879926E-02 -2.76652732E-01  6.54802423E-02
  7.03570957E-01  3.14226139E-06 -3.87647319E-05 -1.48459954E-02  2.58488316E-02
  1.03309632E-02  8.32586723E-05 -4.13852214E-02  7.28126736E-02  2.91795977E-02
  3.68783161E-03 -4.39601587E-03  6.69539539E-04 -2.37218676E-03 -2.07450963E-03
 -3.04382267E-05 -1.04969403E-04 -7.25570851E-04 -3.01169642E-05  1.10051868E-04
  6.77159469E-02 -1.20704398E-01 -4.86873245E-02  4.08040565E-05  2.44470535E-01
 -4.35832958E-01 -1.75354965E-01  3.10344694E-03 -6.90294367E-03  3.80234926E-03
 -9.48593606E-04 -4.36219202E-03  3.87141077E-03  4.79394499E-02  5.85123146E-01
 -4.78850385E-02 -5.84839244E-01 -3.14733242E-05  2.77306768E-04  4.35674085E-03
 -1.12979024E-02  1.70244686E-01  7.92548286E-02  4.11661131E-02 -3.65235505E-02
  3.54583935E-01  1.61655023E-01  9.43434002E-02  3.99899371E-03  5.86898536E-04
  5.18025409E-03 -2.43352909E-04  5.27641510E-03  1.08032039E-03  8.10292861E-02
  6.63128616E-01  8.86408493E-03 -1.58548733E-02  8.97335287E-02  8.38595720E-03
  1.04532197E-01 -3.84953017E-02  2.06292565E-01 -5.55617205E-02  4.25153916E-01
 -2.74133902E-03 -7.53904826E-03  1.88964311E-03  2.99992638E-03  4.33222869E-03
 -3.08933498E-03 -2.56489917E-02 -2.28981814E-01 -2.56895677E-02 -2.30124037E-01
 -1.02468828E-02  1.55310138E-02  1.85034007E-02 -4.47303052E-01 -1.36105877E-01
  2.18127501E-02 -2.44485396E-01  5.73630367E-01 -2.36766492E-02 -4.27404481E-03
 -2.24723722E-02 -1.40072129E-01 -1.73491938E-01 -1.45232552E-01  1.01550287E-02
  3.33752504E-02  4.25400824E-03  3.40626080E-03  1.20109023E-01 -6.48696884E-02
  3.81238727E-01 -2.24574242E-01 -2.60863451E-02 -2.48877957E-01 -4.39127661E-02
  1.08934095E-02  9.52341901E-03 -8.45863888E-03 -4.24433067E-02  1.93427982E-03
 -5.48767168E-02 -4.25705727E-03 -5.88098840E-02 -7.46590326E-03  9.76001296E-03
 -7.88106183E-02  9.62042259E-03 -7.87652308E-02  3.44932939E-02 -1.31250900E-01
  4.94021070E-03  2.16271457E-01 -7.01413640E-02 -3.47549389E-02 -1.18023245E-02
 -3.01662210E-01  3.11461206E-04 -4.58679013E-03  1.18569832E-02  1.06498421E-01
  9.64297937E-02  1.12476217E-01 -1.68296410E-03  1.68951889E-02  3.14389104E-03
 -2.94351139E-02 -8.10149403E-02 -6.16095087E-02  7.91202189E-01  8.12419266E-02
  1.13704086E-03  1.11247833E-01 -3.21198705E-01 -1.06919596E-02  5.45190190E-03
 -2.86815053E-02 -7.05220310E-02 -7.32572480E-02 -7.48834567E-02  8.89262569E-04
  1.73507362E-03  1.81659819E-03 -7.37279148E-03 -1.26941610E-01 -7.39895722E-03
 -1.26842038E-01 -1.03691390E-02 -1.16060543E-01 -3.04542694E-03 -3.08482745E-02
 -8.67190915E-03 -2.65324558E-02  5.40828253E-02  4.60572260E-02  1.52579209E-01
  1.29935307E-01 -1.09922493E-01 -1.45099924E-02 -2.40265078E-02 -4.20608096E-02
 -7.19607055E-04  7.49896638E-03  1.47619090E-02  1.50921400E-01 -1.00498665E-01
 -4.40536949E-03  2.88279662E-02  4.72656215E-01  3.81879622E-01 -2.89745045E-01
  1.05194856E-02 -4.41207299E-01 -3.43895967E-01  2.39313218E-01 -1.23773593E-02
 -9.58463620E-03 -9.58234879E-03 -6.63641753E-03  4.32075188E-03  4.66951455E-03
  3.66499256E-03  1.03940991E-01  3.46459586E-03  1.04039839E-01  2.84098155E-03
 -2.42542799E-01 -1.19915962E-05 -2.09173437E-06  3.65995731E-02 -6.53363372E-02
 -2.63070090E-02  3.49963837E-05 -8.19141387E-02  1.46538497E-01  5.89394533E-02
 -1.62728120E-02  3.91776564E-03  1.23167932E-02  1.45956897E-02 -2.95882560E-03
  1.76747852E-02  4.02270471E-04 -2.17230156E-04  8.08908941E-06 -2.50246802E-04
 -3.28163888E-01  5.84420960E-01  2.34994454E-01  1.22347368E-04  2.83639786E-01
 -5.05102847E-01 -2.03175299E-01 -4.20190782E-03  7.79227777E-03 -3.55122830E-03
  1.68480713E-03  4.31058119E-03 -3.16602590E-03 -6.87826534E-03 -1.99369656E-01
  6.75959675E-03  1.99473599E-01  2.21097052E-04 -2.54815404E-04 -2.31152247E-02
 -1.67564213E-01  2.15339905E-01  7.24343385E-02  1.21223865E-01  1.95759881E-01
  1.67890648E-02 -8.72137842E-03  4.52943677E-02 -1.20091815E-01 -1.07492921E-01
 -1.13998186E-01  1.05863663E-03 -1.66220493E-02 -8.00149738E-03  5.29943628E-02
  1.30586157E-01 -2.64598418E-03  3.71579663E-02  3.59019049E-01 -2.81969239E-02
  5.71454134E-01  1.58821739E-03 -3.01232240E-01  2.76247043E-02 -4.89672534E-01
 -2.73147927E-03 -2.08611263E-02  1.00369513E-02  2.75039606E-03  2.35130161E-02
 -1.06382522E-03 -2.60453733E-03 -8.65723267E-02 -2.53653953E-03 -8.66660585E-02
 -1.10156126E-02  1.77548682E-04  4.18822793E-03  9.57777071E-03 -2.58979531E-01
 -9.82424018E-02 -1.18196694E-01 -3.93748112E-02  4.54565425E-01  2.31596863E-01
  5.61648475E-02 -1.58168626E-02 -1.20443037E-02  4.68206535E-02 -3.49387752E-02
  4.76115361E-02  1.15108750E-02  3.18646935E-01 -1.98758234E-01 -5.15872778E-03
 -9.45440992E-02 -2.14836130E-01 -2.10367993E-01  2.26356948E-01 -2.96076231E-02
 -9.19947464E-02 -3.23323437E-02 -4.24639074E-02  2.31675419E-02  5.48490954E-02
 -1.25382830E-02  7.44908704E-03 -5.52285806E-02 -5.61523620E-03 -1.38084531E-01
  2.54856336E-02 -1.32226269E-01  2.25063256E-02  5.00938706E-01 -1.96702646E-01
 -3.25285388E-05  4.12133665E-04 -1.29576977E-02  2.16249204E-02  6.95383666E-03
 -3.90840121E-04  8.32621772E-02 -1.53323076E-01 -5.83794094E-02 -1.06474639E-02
  8.76161961E-03  2.86575337E-03  8.22792975E-03  2.04229885E-03  5.29075197E-03
 -4.01484950E-03  1.31567655E-03  4.52911337E-04 -1.62616260E-03 -1.63868082E-01
  2.97611097E-01  1.16350443E-01 -2.37151786E-03 -1.09180701E-01  1.93191438E-01
  7.61104544E-02 -6.66839706E-04  1.39941802E-02 -5.38908046E-03 -4.41016225E-04
  6.81181799E-03 -7.98151627E-03 -5.83128159E-01  2.09977958E-01  5.91751214E-01
 -2.15647759E-01 -2.25732439E-03 -6.87489622E-04  7.38499662E-04  4.09487733E-02
 -2.23964088E-01 -4.10345116E-02 -2.12265212E-01 -6.00278771E-02  6.74408757E-02
 -5.39181438E-02  2.34133027E-01  3.35709683E-02  2.39646194E-02  1.86789841E-02
  8.85362253E-03 -1.06471793E-03 -5.50235964E-04 -1.80993422E-01  1.14859000E-02
  3.99205597E-02 -1.98897054E-01  7.53713827E-02  8.15686604E-02 -1.08961388E-01
 -2.42852560E-01 -9.28979981E-02  9.91632743E-03 -1.61719428E-01  2.62363880E-01
  3.00224716E-01  2.50073894E-01 -7.23135908E-03 -4.17248941E-02 -1.21549153E-03
  3.62886399E-01 -2.65975239E-01  3.50026720E-01 -2.61783340E-01  2.64160974E-02
 -1.54361573E-01  1.65564772E-02 -6.92971642E-02 -8.36161403E-02 -6.00439712E-03
 -1.02775319E-01 -3.88239432E-02  3.06306897E-01  1.14716560E-01  1.43232977E-01
 -4.03001260E-03 -1.39659050E-02  3.54799998E-02 -3.04811191E-02  5.49054294E-02
  2.03186442E-02  5.09984092E-01 -1.94302466E-01 -2.76632902E-02  9.74568149E-03
  5.34859468E-02  5.87542916E-02 -7.22839953E-02  9.38623987E-02  1.46946076E-01
  1.43045926E-01 -1.48938221E-01 -1.48054927E-01 -1.06006414E-01 -1.63530030E-01
 -7.30078194E-03 -4.69141518E-02 -1.31404399E-03  2.09771043E-01 -2.49286521E-02
  2.09755609E-01 -2.54583581E-02 -5.02325164E-01  2.35498350E-01 -8.91168916E-03
  1.29672424E-02 -1.86565410E-01  3.02113083E-02 -3.38057575E-01 -1.16500762E-02
  1.33767552E-01 -1.55276678E-01  5.73678672E-01  8.31891570E-02  1.81442957E-02
  9.29532978E-02  2.75829239E-02  5.18707877E-02 -9.60160992E-03 -3.98420358E-01